# 2021-11-08 19:18:55 EET
data_04686
loop_
_publ_author_name
'Comodi P'
'Nazzareni S'
'Zanazzi P F'
'Speziale S'
_publ_section_title
;
 High-pressure behavior of gypsum: A single-crystal X-ray study
 Note: P = 0.33 GPa
;
_journal_name_full               'American Mineralogist'
_journal_page_first              1530
_journal_page_last               1537
_journal_volume                  93
_journal_year                    2008
_chemical_compound_source        'Valle di Caramanico, Abruzzo, Italy'
_chemical_formula_sum            'Ca S O6 H4'
_chemical_name_mineral           Gypsum
_symmetry_space_group_name_H-M   'C 1 2/c 1'
_cell_angle_alpha                90
_cell_angle_beta                 114.10
_cell_angle_gamma                90
_cell_length_a                   6.269
_cell_length_b                   15.140
_cell_length_c                   5.665
_cell_volume                     490.813
_database_code_amcsd             0004653
_diffrn_ambient_pressure         3.3e+05
_exptl_crystal_density_diffrn    2.330
loop_
_space_group_symop_operation_xyz
x,y,z
1/2+x,1/2+y,z
x,-y,1/2+z
1/2+x,1/2-y,1/2+z
-x,y,1/2-z
1/2-x,1/2+y,1/2-z
-x,-y,-z
1/2-x,1/2-y,-z
loop_
_atom_site_label
_atom_site_fract_x
_atom_site_fract_y
_atom_site_fract_z
_atom_site_U_iso_or_equiv
Ca 0.00000 0.17090 0.25000 0.01100
S 0.00000 0.32670 0.75000 0.00800
O1 0.08500 0.27300 0.59100 0.01000
O2 0.20000 0.38300 0.91600 0.01100
WatOW -0.20900 0.06600 -0.08200 0.02600
