#------------------------------------------------------------------------------
#$Date: 2012-03-26 04:51:49 +0300 (Mon, 26 Mar 2012) $
#$Revision: 48068 $
#$URL: svn://www.crystallography.net/cod/cif/1/50/61/1506182.cif $
#------------------------------------------------------------------------------
#
# This file is available in the Crystallography Open Database (COD),
# http://www.crystallography.net/
#
# All data on this site have been placed in the public domain by the
# contributors.
#
data_1506182
_journal_issue                   20
_journal_name_full               'Organic letters'
_journal_page_first              4565
_journal_page_last               4568
_journal_volume                  8
_journal_year                    2006
_space_group_IT_number           19
_symmetry_cell_setting           orthorhombic
_symmetry_space_group_name_Hall  'P 2ac 2ab'
_symmetry_space_group_name_H-M   'P 21 21 21'
_cell_angle_alpha                90.00
_cell_angle_beta                 90.00
_cell_angle_gamma                90.00
_cell_formula_units_Z            4
_cell_length_a                   6.1879(6)
_cell_length_b                   6.6386(6)
_cell_length_c                   30.879(3)
_cell_volume                     1268.5(2)
loop_
_atom_site_label
_atom_site_type_symbol
_atom_site_fract_x
_atom_site_fract_y
_atom_site_fract_z
_atom_site_disorder_assembly
_atom_site_disorder_group
C1  C 0.5604(4)  0.5342(4)  0.90582(8)      A 1
C2  C 0.5062(4)  0.2974(5)  0.86041(9)      A 2
O1  O 0.6619(12) 0.1610(11) 0.7148(3)       B 1
H1  H 0.7791     0.2185     0.7141          B 1
C3  C 0.675(6)   0.009(5)   0.7393(10)      B 1
H2  H 0.7133     -0.1058    0.7216          B 2
H3  H 0.5314     -0.0166    0.7508          B 2
