#------------------------------------------------------------------------------
#$Date: 2013-05-05 17:21:46 +0300 (Sun, 05 May 2013) $
#$Revision: 85285 $
#$URL: svn://www.crystallography.net/cod/cif/9/00/00/9000025.cif $
#------------------------------------------------------------------------------
#
# This file is available in the Crystallography Open Database (COD),
# http://www.crystallography.net/. The original data for this entry
# were provided the American Mineralogist Crystal Structure Database,
# http://rruff.geo.arizona.edu/AMS/amcsd.php
#
# The file may be used within the scientific community so long as
# proper attribution is given to the journal article from which the
# data were obtained.
#
data_9000025
loop_
_publ_author_name
'Hendricks, S. B.'
'Jefferson, M. E.'
_publ_section_title
;
 Polymorphism of the micas with optical measurements
;
_journal_name_full               'American Mineralogist'
_journal_page_first              729
_journal_page_last               771
_journal_volume                  24
_journal_year                    1939
_chemical_formula_sum            'Al F H K Mg3 O11 Si3'
_chemical_name_mineral           Biotite
_space_group_IT_number           2
_symmetry_space_group_name_Hall  '-P 1'
_symmetry_space_group_name_H-M   'P -1'
_cell_angle_alpha                90
_cell_angle_beta                 90
_cell_angle_gamma                120
_cell_length_a                   5.3
_cell_length_b                   5.3
_cell_length_c                   60.0
_cell_volume                     1459.599
_exptl_crystal_density_diffrn    2.862
_[local]_cod_chemical_formula_sum_orig 'K Mg3 (Si3 Al) O11 (F H)'
_cod_database_code               9000025
_cod_depositor_comments
;
  Removing trailing zeroes from _atom_site_occupancy.

  Andrius Merkys
  2014-01-24
;
loop_
_symmetry_equiv_pos_as_xyz
x,y,z
-x,-y,-z
loop_
_atom_site_label
_atom_site_fract_x
_atom_site_fract_y
_atom_site_fract_z
_atom_site_occupancy
K1 0.00000 0.16670 0.08250 1
K2 0.33330 0.16670 0.24920 1
K3 0.33330 0.50000 0.41580 1
Mg1 0.33330 0.16670 0.00000 1
Mg2 0.00000 0.50000 0.00000 1
Mg3 0.33330 0.16670 0.50000 1
Mg4 0.00000 0.50000 0.50000 1
Mg5 0.00000 0.83330 0.16670 1
Mg6 0.66670 0.16670 0.16670 1
Mg7 0.33330 0.50000 0.18370 1
Mg8 0.00000 0.16670 0.50000 1
Mg9 0.33330 0.83330 0.33330 1
Mg10 0.66670 0.50000 0.35030 1
Si1 0.33330 0.83330 0.04400 0.75
Si2 0.66670 0.50000 0.04400 0.75
Si3 0.00000 0.16670 0.54400 0.75
Si4 0.33330 0.83330 0.54400 0.75
Si5 0.66670 0.83330 0.21070 0.75
Si6 0.00000 0.50000 0.21070 0.75
Si7 0.66670 0.50000 0.12270 0.75
Si8 0.33330 0.83330 0.12270 0.75
Si9 0.00000 0.83330 0.37730 0.75
Si10 0.66670 0.16670 0.37730 0.75
Si11 0.00000 0.50000 0.28930 0.75
Si12 0.66670 0.83330 0.28930 0.75
Al1 0.33330 0.83330 0.04400 0.25
Al2 0.66670 0.50000 0.04400 0.25
Al3 0.00000 0.16670 0.54400 0.25
Al4 0.33330 0.83330 0.54400 0.25
Al5 0.66670 0.83330 0.21070 0.25
Al6 0.00000 0.50000 0.21070 0.25
Al7 0.66670 0.50000 0.12270 0.25
Al8 0.33330 0.83330 0.12270 0.25
Al9 0.00000 0.83330 0.37730 0.25
Al10 0.66670 0.16670 0.37730 0.25
Al11 0.00000 0.50000 0.28930 0.25
Al12 0.66670 0.83330 0.28930 0.25
O1 0.33330 0.83330 0.01700 1
O2 0.66670 0.50000 0.01700 1
O3 0.00000 0.66670 0.05300 1
O4 0.50000 0.66670 0.05300 1
O5 0.50000 0.16670 0.05300 1
O6 0.00000 0.16670 0.51700 1
O7 0.33330 0.83330 0.51700 1
O8 0.16670 0.00000 0.55300 1
O9 0.66670 0.00000 0.55300 1
O10 0.16670 0.50000 0.55300 1
O11 0.66670 0.83330 0.18370 1
O12 0.00000 0.50000 0.18370 1
O13 0.66670 0.50000 0.14970 1
O14 0.33330 0.83330 0.14970 1
O15 0.83330 0.66670 0.21970 1
O16 0.83330 0.16670 0.21970 1
O17 0.33330 0.66670 0.21970 1
O18 0.00000 0.66670 0.11370 1
O19 0.50000 0.66670 0.11370 1
O20 0.50000 0.16670 0.11370 1
O21 0.00000 0.83330 0.35030 1
O22 0.66670 0.16670 0.35030 1
O23 0.00000 0.50000 0.31630 1
O24 0.66670 0.83330 0.31630 1
O25 0.83330 0.00000 0.38630 1
O26 0.33330 0.00000 0.38630 1
O27 0.83330 0.50000 0.38630 1
O28 0.83330 0.16670 0.28030 1
O29 0.83330 0.66670 0.28030 1
O30 0.33330 0.66670 0.28030 1
O-H1 0.00000 0.16670 0.01700 0.5
O-H2 0.66670 0.50000 0.51700 0.5
O-H3 0.33330 0.16670 0.18370 0.5
O-H4 0.00000 0.16670 0.14970 0.5
O-H5 0.33330 0.50000 0.35030 0.5
O-H6 0.33330 0.16670 0.31630 0.5
F1 0.00000 0.16670 0.01700 0.5
F2 0.66670 0.50000 0.51700 0.5
F3 0.33330 0.16670 0.18370 0.5
F4 0.00000 0.16670 0.14970 0.5
F5 0.33330 0.50000 0.35030 0.5
F6 0.33330 0.16670 0.31630 0.5
