data_-------
loop_
_publ_author_name
'Smirnov, Alexey'
_publ_section_title
;
 Synthetic structure for cif_Fcal script testing.
 The test was created using data from NaCl 
 example of struture factor calculation:
 source http://pd.chem.ucl.ac.uk/pdnn/diff2/structf.htm .
 Cromer-Mann coefficients was taken from 2234766.cif
;

_space_group_IT_number           1
_symmetry_cell_setting           triclinic
_symmetry_space_group_name_Hall  'P 1'
_symmetry_space_group_name_H-M   'P 1'
_cell_angle_alpha                90.000
_cell_angle_beta                 90.000
_cell_angle_gamma                90.000
_cell_length_a                   5.638
_cell_length_b                   5.638
_cell_length_c                   5.638
_diffrn_radiation_wavelength     0.71073
_cell_volume                     179.21(0)
_diffrn_reflns_limit_h_max       1
_diffrn_reflns_limit_h_min       1
_diffrn_reflns_limit_k_max       1
_diffrn_reflns_limit_k_min       1
_diffrn_reflns_limit_l_max       1
_diffrn_reflns_limit_l_min       1

loop_
_atom_site_type_symbol
_atom_site_label
_atom_site_fract_x
_atom_site_fract_y
_atom_site_fract_z
_atom_site_U_iso_or_equiv
_atom_site_adp_type
_atom_site_occupancy
Cl Cl1 0.50000(0) 0.00000(0) 0.00000(0) 0.0548 Uani 1.0000
Cl Cl2 0.00000(0) 0.50000(0) 0.00000(0) 0.0548 Uani 1.0000
Cl Cl3 0.00000(0) 0.00000(0) 0.50000(0) 0.0548 Uani 1.0000
Cl Cl4 0.50000(0) 0.50000(0) 0.50000(0) 0.0548 Uani 1.0000
Na Na5 0.00000(0) 0.00000(0) 0.00000(0) 0.0548 Uani 1.0000
Na Na6 0.00000(0) 0.50000(0) 0.50000(0) 0.0548 Uani 1.0000
Na Na7 0.50000(0) 0.00000(0) 0.50000(0) 0.0548 Uani 1.0000
Na Na8 0.50000(0) 0.50000(0) 0.00000(0) 0.0548 Uani 1.0000

loop_
_atom_type_symbol
_atom_type_scat_Cromer_Mann_a1
_atom_type_scat_Cromer_Mann_a2
_atom_type_scat_Cromer_Mann_a3
_atom_type_scat_Cromer_Mann_a4
_atom_type_scat_Cromer_Mann_b1
_atom_type_scat_Cromer_Mann_b2
_atom_type_scat_Cromer_Mann_b3
_atom_type_scat_Cromer_Mann_b4
_atom_type_scat_Cromer_Mann_c
_atom_type_scat_dispersion_real
_atom_type_scat_dispersion_imag
_atom_type_scat_source
Cl 11.4604 7.1964 6.2556 1.6455 0.0104 1.1662 18.5194 47.7784 -9.5574 0.1484
0.1585 'International Tables Vol C 4.2.6.8 and 6.1.1.4'
Na 4.7626 3.1736 1.2674 1.1128 3.2850 8.8422 0.3136 129.4240 0.6760 0.0362
0.0249 'International Tables Vol C 4.2.6.8 and 6.1.1.4'
