data_I
_cell_length_a 10
_cell_length_b 10
_cell_length_c 10
_cell_angle_alpha 90
_cell_angle_beta 90
_cell_angle_gamma 90
_publ_author_name 'S. Gra\<zulis'
_symmetry_space_group_name_H-M 'I 4 3 2'
_journal_name_full 'Journal of COD Tests'
_journal_year 2012
_journal_volume 13
_journal_issue 1
_journal_page_first 616
_journal_page_last 666
_chemical_formula_sum C
_chemical_formula_units_Z 1
_publ_section_title
; Test whether missing coordinates are detected correctly by the
  cif_cod_check program.
;
loop_
_atom_site_label
_atom_site_fract_x
C 0
loop_
_atom_site_aniso_label
_atom_site_aniso_U_11
_atom_site_aniso_U_22
_atom_site_aniso_U_33
_atom_site_aniso_U_23
_atom_site_aniso_U_13
_atom_site_aniso_U_12
C 0.0502(4) 0.0427(4) 0.0170(3) 0.0054(3) -0.0031(3) 0.0187(3)
