#------------------------------------------------------------------------------
#$Date: 2009-11-18 16:56:34 +0200 (Wed, 18 Nov 2009) $
#$Revision: 858 $
#$URL: svn://cod.ibt.lt/cod/cif/9/9000024.cif $
#------------------------------------------------------------------------------
#
# This file is available in the Crystallography Open Database (COD),
# http://www.crystallography.net/
#
# All data on this site have been placed in the public domain by the
# contributors.
#
data_9000024
loop_
_publ_author_name
'Hendricks S B'
'Jefferson M E'
_publ_section_title
;
 Polymorphism of the micas with optical measurements
;
_journal_name_full               'American Mineralogist'
_journal_page_first              729
_journal_page_last               771
_journal_volume                  24
_journal_year                    1939
_chemical_formula_sum            'Al F K Mg3 O11 Si3'
_[local]_cod_chemical_formula_sum_orig 'K Mg3 (Si3 Al) O11 F'
_chemical_name_mineral           Lepidolite
_symmetry_space_group_name_H-M   'C 1 c 1'
_cell_angle_alpha                90
_cell_angle_beta                 90.
_cell_angle_gamma                90
_cell_length_a                   9.2
_cell_length_b                   5.3
_cell_length_c                   60.0
_cell_volume                     2925.600
loop_
_symmetry_equiv_pos_as_xyz
x,y,z
1/2+x,1/2+y,z
x,-y,1/2+z
1/2+x,1/2-y,1/2+z
loop_
_atom_site_label
_atom_site_fract_x
_atom_site_fract_y
_atom_site_fract_z
_atom_site_occupancy
K1 0.00000 0.33330 0.08250 1.00000
K2 0.33330 0.66670 0.24920 1.00000
K3 0.16670 0.83330 0.41580 1.00000
Mg1 0.00000 0.00000 0.00000 1.00000
Mg2 0.00000 0.00000 0.16670 1.00000
Mg3 0.00000 0.00000 0.33330 1.00000
Mg4 0.16670 0.50000 0.00000 1.00000
Mg5 0.16670 0.50000 0.16670 1.00000
Mg6 0.16670 0.50000 0.33330 1.00000
Mg7 0.33330 0.00000 0.00000 1.00000
Mg8 0.33330 0.00000 0.16670 1.00000
Mg9 0.33330 0.00000 0.33330 1.00000
Si1 0.33330 0.33330 0.04400 0.75000
Si2 0.00000 0.66670 0.21070 0.75000
Si3 0.00000 0.33330 0.37730 0.75000
Si4 0.16670 0.83330 0.04400 0.75000
Si5 0.16670 0.16670 0.21070 0.75000
Si6 0.33330 0.33330 0.37730 0.75000
Si7 0.00000 0.66670 -0.04400 0.75000
Si8 0.16670 0.83330 0.12270 0.75000
Si9 0.00000 0.66670 0.28930 0.75000
Si10 0.33330 0.66670 -0.04400 0.75000
Si11 0.33330 0.33330 0.12270 0.75000
Si12 0.16670 0.16670 0.28930 0.75000
Al1 0.33330 0.33330 0.04400 0.25000
Al2 0.00000 0.66670 0.21070 0.25000
Al3 0.00000 0.33330 0.37730 0.25000
Al4 0.16670 0.83330 0.04400 0.25000
Al5 0.16670 0.16670 0.21070 0.25000
Al6 0.33330 0.33330 0.37730 0.25000
Al7 0.00000 0.66670 -0.04400 0.25000
Al8 0.16670 0.83330 0.12270 0.25000
Al9 0.00000 0.66670 0.28930 0.25000
Al10 0.33330 0.66670 -0.04400 0.25000
Al11 0.33330 0.33330 0.12270 0.25000
Al12 0.16670 0.16670 0.28930 0.25000
O1 0.25000 0.08330 0.05300 1.00000
O2 0.08330 0.41670 0.21970 1.00000
O3 0.16670 0.33330 0.38630 1.00000
O4 0.25000 0.58330 0.05300 1.00000
O5 0.33330 0.16670 0.21970 1.00000
O6 0.41670 0.08330 0.38630 1.00000
O7 0.50000 0.33330 0.05300 1.00000
O8 0.08330 0.58330 0.21970 1.00000
O9 0.41670 0.58330 0.38630 1.00000
O10 0.33330 0.33330 0.01700 1.00000
O11 0.00000 0.66670 0.18370 1.00000
O12 0.00000 0.33330 0.35030 1.00000
O13 0.16670 0.83330 0.01700 1.00000
O14 0.16670 0.16670 0.18370 1.00000
O15 0.33330 0.33330 0.35030 1.00000
O16 0.00000 0.66670 -0.01700 1.00000
O17 0.16670 0.83330 0.14970 1.00000
O18 0.00000 0.66670 0.31630 1.00000
O19 0.33330 0.66670 -0.01700 1.00000
O20 0.33330 0.33330 0.14970 1.00000
O21 0.16670 0.16670 0.31630 1.00000
O22 0.16670 0.66670 -0.05300 1.00000
O23 0.00000 0.83330 0.11370 1.00000
O24 0.08330 0.41670 0.28030 1.00000
O25 0.41670 0.41670 -0.05300 1.00000
O26 0.25000 0.08330 0.11370 1.00000
O27 0.08330 0.58330 0.28030 1.00000
O28 0.41670 0.58330 -0.05300 1.00000
O29 0.25000 0.58330 0.11370 1.00000
O30 0.33330 0.16670 0.28030 1.00000
O-H1 0.00000 0.33330 0.01700 0.50000
O-H2 0.33330 0.66670 0.18370 0.50000
O-H3 0.16670 0.83330 0.35030 0.50000
O-H4 0.16670 0.16670 -0.01700 0.50000
O-H5 0.00000 0.33330 0.14970 0.50000
O-H6 0.33330 0.66670 0.31630 0.50000
F1 0.00000 0.33330 0.01700 0.50000
F2 0.33330 0.66670 0.18370 0.50000
F3 0.16670 0.83330 0.35030 0.50000
F4 0.16670 0.16670 -0.01700 0.50000
F5 0.00000 0.33330 0.14970 0.50000
F6 0.33330 0.66670 0.31630 0.50000
