#------------------------------------------------------------------------------
#$Date$
#$Revision$
#$URL$
#------------------------------------------------------------------------------
#
# This file is available in the Crystallography Open Database (COD),
# http://www.crystallography.net/
#
# All data on this site have been placed in the public domain by the
# contributors.
#
data_9008040
loop_
_publ_author_name
'Gruner J W'
_publ_section_title
;
 The crystal structures of talc and pyrophyllite
 Locality: Harford County, Maryland, USA
;
_journal_name_full               'Zeitschrift fur Kristallographie'
_journal_page_first              412
_journal_page_last               419
_journal_volume                  88
_journal_year                    1934
_chemical_formula_sum            'H2 Mg3 O12 Si4'
_[local]_cod_chemical_formula_sum_orig 'Mg3 Si4 O12 H2'
_chemical_name_mineral           Talc
_symmetry_space_group_name_H-M   'C 1 2/c 1'
_cell_angle_alpha                90
_cell_angle_beta                 100.00
_cell_angle_gamma                90
_cell_length_a                   5.26
_cell_length_b                   9.10
_cell_length_c                   18.81
_cell_volume                     886.681
loop_
_symmetry_equiv_pos_as_xyz
x,y,z
1/2+x,1/2+y,z
x,-y,1/2+z
1/2+x,1/2-y,1/2+z
-x,y,1/2-z
1/2-x,1/2+y,1/2-z
-x,-y,-z
1/2-x,1/2-y,-z
loop_
_atom_site_label
_atom_site_fract_x
_atom_site_fract_y
_atom_site_fract_z
Mg1 0.00000 0.00000 0.00000
Mg2 0.00000 0.33300 0.00000
Si1 -0.23900 0.00000 0.14300
Si2 0.26100 0.16700 0.14300
O1 0.20300 0.50000 0.05800
O2 0.20300 0.16700 0.05800
O-H1 0.20300 -0.16700 0.05800
O3 0.02500 0.08300 0.17600
O4 -0.47500 0.08300 0.17600
O5 0.27500 0.33300 0.17600
_cod_database_code 9008040
