#------------------------------------------------------------------------------
#$Date: 2016-02-13 21:28:24 +0200 (Sat, 13 Feb 2016) $
#$Revision: 176429 $
#$URL: svn://www.crystallography.net/cod/cif/2/02/00/2020013.cif $
#------------------------------------------------------------------------------
#
# This file is available in the Crystallography Open Database (COD),
# http://www.crystallography.net/. The original data for this entry
# were provided by IUCr Journals, http://journals.iucr.org/.
#
# The file may be used within the scientific community so long as
# proper attribution is given to the journal article from which the
# data were obtained.
#
data_2020013
loop_
_publ_author_name
'Havl\'ak, Lubom\'ir'
'F\'abry, Jan'
'Henriques, Margarida'
'Du\<sek, Michal'
_publ_section_title
;
 Structure determination of KScS~2~, RbScS~2~ and KLnS~2~ (Ln = Nd, Sm,
 Tb, Dy, Ho, Er, Tm and Yb) and crystal--chemical discussion
;
_journal_coeditor_code           FA3364
_journal_issue                   7
_journal_name_full               'Acta Crystallographica Section C'
_journal_page_first              623
_journal_page_last               630
_journal_paper_doi               10.1107/S2053229615011833
_journal_volume                  71
_journal_year                    2015
_chemical_formula_iupac          'K1 Ho1 S2'
_chemical_formula_moiety         'Ho1 K1 S2'
_chemical_formula_sum            'Ho K S2'
_chemical_formula_weight         268.1
_chemical_name_systematic
;
Potassium holmium sulfide
;
_space_group_IT_number           166
_symmetry_cell_setting           trigonal
_symmetry_space_group_name_Hall  '-R 3 2"'
_symmetry_space_group_name_H-M   'R -3 m :H'
_cell_angle_alpha                90
_cell_angle_beta                 90
_cell_angle_gamma                120
_cell_formula_units_Z            3
_cell_length_a                   4.0098(4)
_cell_length_b                   4.0098(4)
_cell_length_c                   21.878(2)
_cell_measurement_reflns_used    1327
_cell_measurement_temperature    303.3(3)
_cell_measurement_theta_max      28.77
_cell_measurement_theta_min      5.56
_cell_volume                     304.64(5)
_computing_cell_refinement
;
<i>CrysAlis PRO</i> (Agilent, 2014)
;
_computing_data_collection
;
<i>CrysAlis PRO</i> (Agilent, 2014)
;
_computing_data_reduction
;
<i>CrysAlis PRO</i> (Agilent, 2014)
;
_computing_publication_material
;
<i>JANA2006</i> (Pet\<r\'i\<cek <i>et al.</i>, 2014)
;
_computing_structure_refinement
;
<i>JANA2006</i> (Pet\<r\'i\<cek <i>et al.</i>, 2014)
;
_computing_structure_solution
;
SUPERFLIP (Palatinus & Chapuis, 2007)
;
_diffrn_ambient_temperature      303.3
_diffrn_detector_area_resol_mean 5.1873
_diffrn_measured_fraction_theta_full 0.99
_diffrn_measured_fraction_theta_max 0.99
_diffrn_measurement_device       'four-circle diffractometer'
_diffrn_measurement_device_type
'Xcalibur Gemini Ultra diffractometer with Atlas detector'
_diffrn_measurement_method       \w
_diffrn_radiation_monochromator  graphite
_diffrn_radiation_source         'X-ray tube'
_diffrn_radiation_type           'Mo K\a'
_diffrn_radiation_wavelength     0.71073
_diffrn_reflns_av_R_equivalents  0.0575
_diffrn_reflns_limit_h_max       5
_diffrn_reflns_limit_h_min       -5
_diffrn_reflns_limit_k_max       5
_diffrn_reflns_limit_k_min       -5
_diffrn_reflns_limit_l_max       29
_diffrn_reflns_limit_l_min       -29
_diffrn_reflns_number            2289
_diffrn_reflns_theta_full        29.21
_diffrn_reflns_theta_max         29.21
_diffrn_reflns_theta_min         5.59
_diffrn_standards_number         0
_exptl_absorpt_coefficient_mu    21.285
_exptl_absorpt_correction_T_max  0.2433
_exptl_absorpt_correction_T_min  0.0898
_exptl_absorpt_correction_type   gaussian
_exptl_absorpt_process_details
;
<i>JANA2006</i> (Pet\<r\'i\<cek <i>et al.</i>, 2014)
;
_exptl_crystal_colour            yellow
_exptl_crystal_density_diffrn    4.3849
_exptl_crystal_description       prism
_exptl_crystal_F_000             354
_exptl_crystal_size_max          0.187
_exptl_crystal_size_mid          0.137
_exptl_crystal_size_min          0.074
_refine_diff_density_max         0.77
_refine_diff_density_min         -1.00
_refine_ls_extinction_coef       141E1(13)
_refine_ls_extinction_method
;
B-C type 1 Lorentzian isotropic
[Becker, P. J. & Coppens, P. (1974). <i>Acta Cryst.</i> A<b>30</b>, 129--147]
;
_refine_ls_goodness_of_fit_ref   1.56
_refine_ls_number_constraints    0
_refine_ls_number_parameters     10
_refine_ls_number_reflns         216
_refine_ls_number_restraints     0
_refine_ls_R_factor_all          0.0308
_refine_ls_R_factor_gt           0.0204
_refine_ls_shift/su_max          0.0020
_refine_ls_shift/su_mean         0.0008
_refine_ls_structure_factor_coef Fsqd
_refine_ls_weighting_details     'w = 1/[\s^2^(I) + 0.0004I^2^]'
_refine_ls_weighting_scheme      sigma
_refine_ls_wR_factor_gt          0.0497
_refine_ls_wR_factor_ref         0.0597
_reflns_number_gt                139
_reflns_number_total             216
_reflns_threshold_expression     I>3\s(I)
_iucr_refine_instructions_details
;
    3    0    0    1
 2.964250 0.000000 0.000000 0.000000 0.000000 0.000142      100001
 0.000000 0.000000                                          00
 0.000000 0.000000 0.000000 0.000000 0.000000 0.000000      000000
 0.140811 0.000000 0.000000 0.000000 0.000000 0.000000      100000
K         1  2     0.083333 0.000000 0.000000 0.000000
 0.018002 0.018002 0.010801 0.009001 0.000000 0.000000      0000101000
Ho        2  2     0.083333 0.333333 0.666667 0.166667
 0.007800 0.007800 0.007365 0.003900 0.000000 0.000000      0000101000
S         3  2     0.166667 0.000000 0.000000 0.234298
 0.010499 0.010499 0.006255 0.005250 0.000000 0.000000      0001101000
----------------------------   s.u. block   ----------------------------
 0.024650 0.000000 0.000000 0.000000 0.000000 0.000033
 0.000000 0.000000
 0.000000 0.000000 0.000000 0.000000 0.000000 0.000000
 0.012671 0.000000 0.000000 0.000000 0.000000 0.000000
K                  0.000000 0.000000 0.000000 0.000000
 0.000957 0.000957 0.001322 0.000479 0.000000 0.000000
Ho                 0.000000 0.000000 0.000000 0.000000
 0.000355 0.000355 0.000408 0.000178 0.000000 0.000000
S                  0.000000 0.000000 0.000000 0.000110
 0.000701 0.000701 0.000952 0.000351 0.000000 0.000000
--------------------------   Saved points   ----------------------------
    0
--------------------------   Fourier maxima   --------------------------
    1    1    1
max1      1  1     1.000000 0.000000 0.000000 0.125426      000  0  0  0
     0.61     0.40
max2      1  1     1.000000 0.000000 0.000000 0.500000      000  0  0  0
     0.78     0.39
max3      1  1     1.000000 0.097501 0.547619 0.174801      000  0  0  0
     0.70     0.38
max4      1  1     1.000000 0.184205 0.760830 0.159617      000  0  0  0
     0.68     0.37
max5      1  1     1.000000 0.074893 0.138466 0.877560      000  0  0  0
     0.51     0.35
max6      1  1     1.000000 0.099868 0.196800 0.613853      000  0  0  0
     0.34     0.23
max7      1  1     1.000000 0.000000 0.500000 0.000000      000  0  0  0
     0.39     0.22
max8      1  1     1.000000 0.074485 0.535628 0.665452      000  0  0  0
     0.35     0.20
max9      1  1     1.000000 0.056418 0.523835 0.438220      000  0  0  0
     0.41     0.19
max10     1  1     1.000000 0.004314 0.500000 0.069805      000  0  0  0
     0.39     0.19
--------------------------   Fourier minima   --------------------------
    1    1    1
min1      1  1     1.000000 0.000000 0.000000 0.440099      000  0  0  0
     1.01     0.76
min2      1  1     1.000000 0.000000 0.000000 0.297883      000  0  0  0
     0.74     0.50
min3      1  1     1.000000 0.049948 0.098828 0.067160      000  0  0  0
     0.73     0.49
min4      1  1     1.000000 0.049983 0.098689 0.809486      000  0  0  0
     0.72     0.44
min5      1  1     1.000000-0.023310 0.488139 0.873386      000  0  0  0
     0.43     0.21
min6      1  1     1.000000 0.050062 0.106083 0.781976      000  0  0  0
     0.46     0.19
min7      1  1     1.000000 0.054495 0.523838 0.965241      000  0  0  0
     0.31     0.10
min8      1  1     1.000000 0.043559 0.523831 0.611315      000  0  0  0
     0.22     0.08
min9      1  1     1.000000 0.044865 0.523858 0.245949      000  0  0  0
     0.31     0.06
min10     1  1     1.000000 0.025009 0.052211 0.850630      000  0  0  0
     0.24     0.05
------------------------------------------------------------------------
Version Jana2006
title
cell 4.0098 4.0098 21.878 90 90 120
esdcell 0.0004 0.0004 0.002 0 0 0
spgroup R-3m 166 5
lattice R
symmetry x y z
symmetry -y x-y z
symmetry -x+y -x z
symmetry y x -z
symmetry x-y -y -z
symmetry -x -x+y -z
symmetry -x -y -z
symmetry y -x+y -z
symmetry x-y x -z
symmetry -y -x z
symmetry -x+y y z
symmetry x x-y z
unitsnumb 3
chemform K Ho S2
formtab -62
atom K atradius 2.35 color 161033246
atom Ho atradius 1.76 color 7065251
atom S atradius 1.04 color 255250000
twin 2
    -1.0000     0.0000     0.0000
     0.0000    -1.0000     0.0000
     0.0000     0.0000     1.0000
roundmethod 1
end
*******************************************************************************
contour
end contour
dist
  angles 1 lsttype 1 dmax 3.7
  bondval K S 2.59 0.37
  bondval Ho S 2.48 0.37
end dist
fourier
  maptype 6
end fourier
refine
  fsquare 1
  iext 1 itypex 1 idistr 2 radius 0.01
end refine
;
_cod_data_source_file            fa3364sup1.cif
_cod_data_source_block           VII
_cod_original_sg_symbol_H-M      'R -3 m'
_cod_original_formula_sum        'Ho1 K1 S2'
_cod_database_code               2020013
_cod_database_fobs_code          2020013
loop_
_space_group_symop_id
_space_group_symop_operation_xyz
1 x,y,z
2 -y,x-y,z
3 -x+y,-x,z
4 y,x,-z
5 x-y,-y,-z
6 -x,-x+y,-z
7 -x,-y,-z
8 y,-x+y,-z
9 x-y,x,-z
10 -y,-x,z
11 -x+y,y,z
12 x,x-y,z
13 x+2/3,y+1/3,z+1/3
14 -y+2/3,x-y+1/3,z+1/3
15 -x+y+2/3,-x+1/3,z+1/3
16 y+2/3,x+1/3,-z+1/3
17 x-y+2/3,-y+1/3,-z+1/3
18 -x+2/3,-x+y+1/3,-z+1/3
19 -x+2/3,-y+1/3,-z+1/3
20 y+2/3,-x+y+1/3,-z+1/3
21 x-y+2/3,x+1/3,-z+1/3
22 -y+2/3,-x+1/3,z+1/3
23 -x+y+2/3,y+1/3,z+1/3
24 x+2/3,x-y+1/3,z+1/3
25 x+1/3,y+2/3,z+2/3
26 -y+1/3,x-y+2/3,z+2/3
27 -x+y+1/3,-x+2/3,z+2/3
28 y+1/3,x+2/3,-z+2/3
29 x-y+1/3,-y+2/3,-z+2/3
30 -x+1/3,-x+y+2/3,-z+2/3
31 -x+1/3,-y+2/3,-z+2/3
32 y+1/3,-x+y+2/3,-z+2/3
33 x-y+1/3,x+2/3,-z+2/3
34 -y+1/3,-x+2/3,z+2/3
35 -x+y+1/3,y+2/3,z+2/3
36 x+1/3,x-y+2/3,z+2/3
loop_
_atom_site_type_symbol
_atom_site_label
_atom_site_fract_x
_atom_site_fract_y
_atom_site_fract_z
_atom_site_U_iso_or_equiv
_atom_site_adp_type
_atom_site_calc_flag
_atom_site_occupancy
K K 0 0 0 0.0156(8) Uani d 1
Ho Ho 0.333333 0.666667 0.166667 0.0077(3) Uani d 1
S S 0 0 0.23430(11) 0.0091(6) Uani d 1
loop_
_atom_site_aniso_label
_atom_site_aniso_U_11
_atom_site_aniso_U_22
_atom_site_aniso_U_33
_atom_site_aniso_U_12
_atom_site_aniso_U_13
_atom_site_aniso_U_23
_atom_site_aniso_type_symbol
K 0.0180(10) 0.0180(10) 0.0108(13) 0.0090(5) 0 0 K
Ho 0.0078(4) 0.0078(4) 0.0074(4) 0.00390(18) 0 0 Ho
S 0.0105(7) 0.0105(7) 0.0063(10) 0.0053(4) 0 0 S
loop_
_atom_type_symbol
_atom_type_scat_dispersion_real
_atom_type_scat_dispersion_imag
_atom_type_scat_source
Ho -0.2175 4.6783 'International Tables Vol C tables 4.2.6.8 and 6.1.1.1'
K 0.2009 0.2494 'International Tables Vol C tables 4.2.6.8 and 6.1.1.1'
S 0.1246 0.1234 'International Tables Vol C tables 4.2.6.8 and 6.1.1.1'
loop_
_exptl_crystal_face_index_h
_exptl_crystal_face_index_k
_exptl_crystal_face_index_l
_exptl_crystal_face_perp_dist
5 -5 6 0.0592
-5 5 -6 0.0773
-5 0 -2 0.0762
5 0 2 0.0762
0 5 -4 0.08
1 -1 -30 0.0541
-1 1 30 0.0197
-2 -4 2 0.0938
loop_
_geom_angle_atom_site_label_1
_geom_angle_atom_site_label_2
_geom_angle_atom_site_label_3
_geom_angle_site_symmetry_1
_geom_angle_site_symmetry_3
_geom_angle
S K S 25_444 25_544 78.44(3)
S K S 25_444 25_554 78.44(4)
S K S 25_444 16_445 101.56(4)
S K S 25_444 16_455 101.56(3)
S K S 25_444 16_555 180.0(5)
S K S 25_544 25_554 78.44(3)
S K S 25_544 16_445 101.56(3)
S K S 25_544 16_455 180.0(5)
S K S 25_544 16_555 101.56(3)
S K S 25_554 16_445 180.0(5)
S K S 25_554 16_455 101.56(3)
S K S 25_554 16_555 101.56(4)
S K S 16_445 16_455 78.44(3)
S K S 16_445 16_555 78.44(4)
S K S 16_455 16_555 78.44(3)
S Ho S . 1_565 93.73(4)
S Ho S . 1_665 93.73(4)
S Ho S . 16_455 86.28(4)
S Ho S . 16_555 86.28(4)
S Ho S . 16_565 180.0(5)
S Ho S 1_565 1_665 93.73(4)
S Ho S 1_565 16_455 86.28(4)
S Ho S 1_565 16_555 180.0(5)
S Ho S 1_565 16_565 86.28(4)
S Ho S 1_665 16_455 180.0(5)
S Ho S 1_665 16_555 86.28(4)
S Ho S 1_665 16_565 86.28(4)
S Ho S 16_455 16_555 93.72(4)
S Ho S 16_455 16_565 93.72(4)
S Ho S 16_555 16_565 93.72(4)
K S K 13_445 13_455 78.44(5)
K S K 13_445 13_555 78.44(5)
K S K 13_455 13_555 78.44(5)
Ho S Ho 1_445 1_545 93.73(6)
Ho S Ho 1_445 . 93.73(6)
Ho S Ho 1_545 . 93.73(6)
loop_
_geom_bond_atom_site_label_1
_geom_bond_atom_site_label_2
_geom_bond_site_symmetry_2
_geom_bond_distance
K S 25_444 3.1708(17)
K S 25_544 3.1708(17)
K S 25_554 3.1708(17)
K S 16_445 3.1708(17)
K S 16_455 3.1708(17)
K S 16_555 3.1708(17)
Ho S . 2.7475(14)
Ho S 1_565 2.7475(13)
Ho S 1_665 2.7475(14)
Ho S 16_455 2.7475(14)
Ho S 16_555 2.7475(13)
Ho S 16_565 2.7475(14)
