#------------------------------------------------------------------------------
#$Date$
#$Revision$
#$URL$
#------------------------------------------------------------------------------
#
# This file is available in the Crystallography Open Database (COD),
# http://www.crystallography.net/. The original data for this entry
# were provided the American Mineralogist Crystal Structure Database,
# http://rruff.geo.arizona.edu/AMS/amcsd.php
#
# The file may be used within the scientific community so long as
# proper attribution is given to the journal article from which the
# data were obtained.
#
data_9012705
loop_
_publ_author_name
'Lipson, H.'
'Stokes, A. R.'
_publ_section_title
;
 The structure of graphite
 Locality: Ceylon, Bavaria
 Note: phase: graphite 3R
;
_journal_name_full               'Proceedings of the Royal Society of London A'
_journal_page_first              101
_journal_page_last               105
_journal_volume                  181
_journal_year                    1942
_chemical_formula_sum            C
_chemical_name_mineral           Graphite
_space_group_IT_number           166
_symmetry_space_group_name_Hall  '-P 3* 2'
_symmetry_space_group_name_H-M   'R -3 m :R'
_cell_angle_alpha                39.49
_cell_angle_beta                 39.49
_cell_angle_gamma                39.49
_cell_length_a                   3.635
_cell_length_b                   3.635
_cell_length_c                   3.635
_cell_volume                     17.485
_[local]_cod_data_source_file    12760.cif
_[local]_cod_data_source_block   global
_[local]_cod_cif_authors_sg_H-M  'R -3 m'
loop_
_symmetry_equiv_pos_as_xyz
x,y,z
-x,-z,-y
-z,-x,-y
y,x,z
y,z,x
-z,-y,-x
-x,-y,-z
x,z,y
z,x,y
-y,-x,-z
-y,-z,-x
z,y,x
loop_
_atom_site_label
_atom_site_fract_x
_atom_site_fract_y
_atom_site_fract_z
C 0.16400 0.16400 0.16400
_cod_database_code 9012705
