data_placeholder_cif-markup
_publ_section_title              '2 \\times  2 is 4'
_journal_name_full               'The 2 \\times    2 Journal'
_journal_page_first              1
_journal_volume                  1
_journal_year                    1
_chemical_formula_sum            H
_space_group_IT_number           1
_space_group_name_Hall           'P 1'
_space_group_name_H-M_alt        'P 1'
_cell_angle_alpha                90
_cell_angle_beta                 90
_cell_angle_gamma                90
_cell_formula_units_Z            1
_cell_length_a                   1
_cell_length_b                   1
_cell_length_c                   1
loop_
_space_group_symop_id
_space_group_symop_operation_xyz
1 x,y,z
loop_
_atom_site_label
_atom_site_fract_x
_atom_site_fract_y
_atom_site_fract_z
H 0 0 0
