data_cifdata_7007079
loop_
_publ_author_name
'O'Neill H St C'
'Dollase, W. A.'
'Ross, C. R.'
_publ_section_title
;
 Temperature dependence of the cation distribution in nickel
 aluminate (NiAl2O4) spinel: a powder XRD study
 Sample: quenched from 750 C, held for 43h, Bayerisheches Geoinstitut (Mo), Model 1
;
_journal_name_full               'Physics and Chemistry of Minerals'
_journal_page_first              302
_journal_page_last               319
_journal_volume                  18
_journal_year                    1991
_chemical_formula_sum            '(Ni Al2) O4'
_chemical_name_mineral           NiAl2O4
_space_group_IT_number           227
_symmetry_space_group_name_Hall  '-F 4vw 2vw 3'
_symmetry_space_group_name_H-M   'F d -3 m :2'
_cell_angle_alpha                90
_cell_angle_beta                 90
_cell_angle_gamma                90
_cell_length_a                   8.0460
_cell_length_b                   8.0460
_cell_length_c                   8.0460
_cell_volume                     520.883
_exptl_crystal_density_diffrn    4.505
_exptl_crystal_thermal_history   'quenched from 750 C, held for 43h'
_[local]_cod_data_source_file    cifdata.txt
_[local]_cod_data_source_block   'global_7079'
_[local]_cod_cif_authors_sg_H-M  'F d 3 m'
loop_
_symmetry_equiv_pos_as_xyz
x,y,z
x,1/2+y,1/2+z
1/2+x,y,1/2+z
1/2+x,1/2+y,z
3/4+z,1/2-x,1/4+y
3/4+z,-x,3/4+y
1/4+z,1/2-x,3/4+y
1/4+z,-x,1/4+y
3/4-y,1/2+z,1/4-x
3/4-y,+z,3/4-x
1/4-y,1/2+z,3/4-x
1/4-y,+z,1/4-x
3/4+x,1/2-y,1/4+z
3/4+x,-y,3/4+z
1/4+x,1/2-y,3/4+z
1/4+x,-y,1/4+z
3/4-z,1/2+x,1/4-y
3/4-z,+x,3/4-y
1/4-z,1/2+x,3/4-y
1/4-z,+x,1/4-y
3/4+y,1/2-z,1/4+x
3/4+y,-z,3/4+x
1/4+y,1/2-z,3/4+x
1/4+y,-z,1/4+x
3/4-x,1/2+y,1/4-z
3/4-x,+y,3/4-z
1/4-x,1/2+y,3/4-z
1/4-x,+y,1/4-z
1/2+x,3/4-z,1/4-y
1/2+x,1/4-z,3/4-y
+x,3/4-z,3/4-y
+x,1/4-z,1/4-y
1/2-z,3/4+y,1/4+x
1/2-z,1/4+y,3/4+x
-z,3/4+y,3/4+x
-z,1/4+y,1/4+x
1/2+y,3/4-x,1/4-z
1/2+y,1/4-x,3/4-z
+y,3/4-x,3/4-z
+y,1/4-x,1/4-z
1/2-x,3/4+z,1/4+y
1/2-x,1/4+z,3/4+y
-x,3/4+z,3/4+y
-x,1/4+z,1/4+y
1/2+z,3/4-y,1/4-x
1/2+z,1/4-y,3/4-x
+z,3/4-y,3/4-x
+z,1/4-y,1/4-x
1/2-y,3/4+x,1/4+z
1/2-y,1/4+x,3/4+z
-y,3/4+x,3/4+z
-y,1/4+x,1/4+z
x,1/2+z,1/2+y
x,+z,+y
1/2+x,1/2+z,+y
1/2+x,+z,1/2+y
-z,1/2-y,1/2-x
-z,-y,-x
1/2-z,1/2-y,-x
1/2-z,-y,1/2-x
y,1/2+x,1/2+z
y,+x,+z
1/2+y,1/2+x,+z
1/2+y,+x,1/2+z
-x,1/2-z,1/2-y
-x,-z,-y
1/2-x,1/2-z,-y
1/2-x,-z,1/2-y
z,1/2+y,1/2+x
z,+y,+x
1/2+z,1/2+y,+x
1/2+z,+y,1/2+x
-y,1/2-x,1/2-z
-y,-x,-z
1/2-y,1/2-x,-z
1/2-y,-x,1/2-z
3/4+z,1/4+x,1/2-y
3/4+z,3/4+x,-y
1/4+z,1/4+x,-y
1/4+z,3/4+x,1/2-y
3/4-y,1/4-z,1/2+x
3/4-y,3/4-z,+x
1/4-y,1/4-z,+x
1/4-y,3/4-z,1/2+x
3/4+x,1/4+y,1/2-z
3/4+x,3/4+y,-z
1/4+x,1/4+y,-z
1/4+x,3/4+y,1/2-z
3/4-z,1/4-x,1/2+y
3/4-z,3/4-x,+y
1/4-z,1/4-x,+y
1/4-z,3/4-x,1/2+y
3/4+y,1/4+z,1/2-x
3/4+y,3/4+z,-x
1/4+y,1/4+z,-x
1/4+y,3/4+z,1/2-x
3/4-x,1/4-y,1/2+z
3/4-x,3/4-y,+z
1/4-x,1/4-y,+z
1/4-x,3/4-y,1/2+z
-z,3/4+x,3/4+y
-z,1/4+x,1/4+y
1/2-z,3/4+x,1/4+y
1/2-z,1/4+x,3/4+y
y,3/4-z,3/4-x
y,1/4-z,1/4-x
1/2+y,3/4-z,1/4-x
1/2+y,1/4-z,3/4-x
-x,3/4+y,3/4+z
-x,1/4+y,1/4+z
1/2-x,3/4+y,1/4+z
1/2-x,1/4+y,3/4+z
z,3/4-x,3/4-y
z,1/4-x,1/4-y
1/2+z,3/4-x,1/4-y
1/2+z,1/4-x,3/4-y
-y,3/4+z,3/4+x
-y,1/4+z,1/4+x
1/2-y,3/4+z,1/4+x
1/2-y,1/4+z,3/4+x
x,3/4-y,3/4-z
x,1/4-y,1/4-z
1/2+x,3/4-y,1/4-z
1/2+x,1/4-y,3/4-z
1/4-x,1/2+z,3/4-y
1/4-x,+z,1/4-y
3/4-x,1/2+z,1/4-y
3/4-x,+z,3/4-y
1/4+z,1/2-y,3/4+x
1/4+z,-y,1/4+x
3/4+z,1/2-y,1/4+x
3/4+z,-y,3/4+x
1/4-y,1/2+x,3/4-z
1/4-y,+x,1/4-z
3/4-y,1/2+x,1/4-z
3/4-y,+x,3/4-z
1/4+x,1/2-z,3/4+y
1/4+x,-z,1/4+y
3/4+x,1/2-z,1/4+y
3/4+x,-z,3/4+y
1/4-z,1/2+y,3/4-x
1/4-z,+y,1/4-x
3/4-z,1/2+y,1/4-x
3/4-z,+y,3/4-x
1/4+y,1/2-x,3/4+z
1/4+y,-x,1/4+z
3/4+y,1/2-x,1/4+z
3/4+y,-x,3/4+z
3/4-x,3/4-z,y
3/4-x,1/4-z,1/2+y
1/4-x,3/4-z,1/2+y
1/4-x,1/4-z,y
3/4+z,3/4+y,-x
3/4+z,1/4+y,1/2-x
1/4+z,3/4+y,1/2-x
1/4+z,1/4+y,-x
3/4-y,3/4-x,z
3/4-y,1/4-x,1/2+z
1/4-y,3/4-x,1/2+z
1/4-y,1/4-x,z
3/4+x,3/4+z,-y
3/4+x,1/4+z,1/2-y
1/4+x,3/4+z,1/2-y
1/4+x,1/4+z,-y
3/4-z,3/4-y,x
3/4-z,1/4-y,1/2+x
1/4-z,3/4-y,1/2+x
1/4-z,1/4-y,x
3/4+y,3/4+x,-z
3/4+y,1/4+x,1/2-z
1/4+y,3/4+x,1/2-z
1/4+y,1/4+x,-z
-z,-x,-y
-z,1/2-x,1/2-y
1/2-z,-x,1/2-y
1/2-z,1/2-x,-y
y,z,x
y,1/2+z,1/2+x
1/2+y,z,1/2+x
1/2+y,1/2+z,x
-x,-y,-z
-x,1/2-y,1/2-z
1/2-x,-y,1/2-z
1/2-x,1/2-y,-z
z,x,y
z,1/2+x,1/2+y
1/2+z,x,1/2+y
1/2+z,1/2+x,y
-y,-z,-x
-y,1/2-z,1/2-x
1/2-y,-z,1/2-x
1/2-y,1/2-z,-x
loop_
_atom_site_label
_atom_site_fract_x
_atom_site_fract_y
_atom_site_fract_z
_atom_site_occupancy
_atom_site_U_iso_or_equiv
Ni 0.12500 0.12500 0.12500 0.13800 0.00431
Al 0.12500 0.12500 0.12500 0.86200 0.00431
Al 0.50000 0.50000 0.50000 0.56900 0.00431
Ni 0.50000 0.50000 0.50000 0.43100 0.00431
O 0.25530 0.25530 0.25530 1.00000 0.01039
